-0.5 	-1 	0.5 	90.4051 	15.0448 	1.15064e-19
-0.4375 	-1 	0.5 	90.177 	14.8956 	1.1372e-18
-0.375 	-1 	0.5 	89.9518 	14.7209 	-8.26333e-19
-0.3125 	-1 	0.5 	89.7358 	14.5131 	-8.74994e-19
-0.25 	-1 	0.5 	89.5372 	14.2817 	-2.50987e-18
-0.1875 	-1 	0.5 	89.3516 	14.0247 	4.31022e-19
-0.125 	-1 	0.5 	89.1787 	13.7539 	-7.3439e-19
-0.0625 	-1 	0.5 	89.0275 	13.4497 	4.96546e-18
-1.61546e-17 	-1 	0.5 	88.9154 	13.1326 	-5.58751e-19
0.0625 	-1 	0.5 	88.8323 	12.8018 	-6.74529e-19
0.125 	-1 	0.5 	88.7812 	12.4603 	-3.91721e-18
0.1875 	-1 	0.5 	88.7549 	12.128 	-1.65855e-18
0.25 	-1 	0.5 	88.7683 	11.7885 	3.28522e-18
0.3125 	-1 	0.5 	88.7995 	11.4182 	-1.23267e-19
0.375 	-1 	0.5 	88.8794 	11.1126 	-6.64383e-19
0.4375 	-1 	0.5 	88.9736 	10.7921 	4.37985e-19
0.5 	-1 	0.5 	89.0998 	10.4962 	-1.15047e-18
0.5625 	-1 	0.5 	89.2475 	10.2058 	2.65313e-19
0.625 	-1 	0.5 	89.4086 	9.94349 	1.00932e-18
0.6875 	-1 	0.5 	89.587 	9.69571 	-3.07888e-18
0.75 	-1 	0.5 	89.7732 	9.47007 	1.53398e-18
0.8125 	-1 	0.5 	89.9857 	9.27826 	-3.65248e-18
0.875 	-1 	0.5 	90.1934 	9.08795 	-3.42243e-18
0.9375 	-1 	0.5 	90.4195 	8.9241 	5.04259e-19
1 	-1 	0.5 	90.6426 	8.79158 	-9.94262e-19
1.0625 	-1 	0.5 	90.8478 	8.66641 	1.21983e-18
1.125 	-1 	0.5 	91.0695 	8.56298 	-5.10305e-19
1.1875 	-1 	0.5 	91.2926 	8.48358 	8.73431e-19
1.25 	-1 	0.5 	91.5053 	8.42227 	-6.14532e-19
1.3125 	-1 	0.5 	91.7145 	8.37084 	-1.86609e-18
1.375 	-1 	0.5 	91.9105 	8.34052 	3.79282e-18
1.4375 	-1 	0.5 	92.1019 	8.30847 	-1.68281e-18
-0.5 	-0.9375 	0.5 	90.2557 	15.2849 	-2.45276e-18
-0.4375 	-0.9375 	0.5 	90.0058 	15.1306 	2.90618e-18
-0.375 	-0.9375 	0.5 	89.755 	14.9467 	7.8807e-19
-0.3125 	-0.9375 	0.5 	89.5052 	14.7349 	8.94086e-19
-0.25 	-0.9375 	0.5 	89.284 	14.4901 	-8.12263e-18
-0.1875 	-0.9375 	0.5 	89.0631 	14.2198 	1.12589e-19
-0.125 	-0.9375 	0.5 	88.8617 	13.9491 	-3.5858e-19
-0.0625 	-0.9375 	0.5 	88.7003 	13.5916 	4.75828e-19
6.80662e-16 	-0.9375 	0.5 	88.5756 	13.2404 	-2.15981e-18
0.0625 	-0.9375 	0.5 	88.4752 	12.8756 	1.6296e-18
0.125 	-0.9375 	0.5 	88.4208 	12.5055 	-1.25994e-18
0.1875 	-0.9375 	0.5 	88.398 	12.1263 	-2.71769e-18
0.25 	-0.9375 	0.5 	88.4023 	11.7518 	5.34785e-19
0.3125 	-0.9375 	0.5 	88.4604 	11.3845 	5.00869e-18
0.375 	-0.9375 	0.5 	88.537 	11.0214 	2.23974e-18
0.4375 	-0.9375 	0.5 	88.6519 	10.6827 	2.07239e-18
0.5 	-0.9375 	0.5 	88.7919 	10.3528 	2.56671e-18
0.5625 	-0.9375 	0.5 	88.9555 	10.0435 	-5.20969e-20
0.625 	-0.9375 	0.5 	89.1385 	9.75619 	-1.35152e-18
0.6875 	-0.9375 	0.5 	89.3374 	9.49844 	-6.65593e-20
0.75 	-0.9375 	0.5 	89.5612 	9.26015 	-2.97684e-19
0.8125 	-0.9375 	0.5 	89.7832 	9.05225 	2.59589e-18
0.875 	-0.9375 	0.5 	90.0241 	8.8608 	-6.1358e-19
0.9375 	-0.9375 	0.5 	90.2545 	8.70067 	1.60642e-19
1 	-0.9375 	0.5 	90.4867 	8.56213 	2.29837e-19
1.0625 	-0.9375 	0.5 	90.7391 	8.44095 	1.63019e-18
1.125 	-0.9375 	0.5 	90.9825 	8.33476 	2.64435e-19
1.1875 	-0.9375 	0.5 	91.2233 	8.25942 	1.42895e-19
1.25 	-0.9375 	0.5 	91.4408 	8.20608 	3.98693e-19
1.3125 	-0.9375 	0.5 	91.6685 	8.15879 	1.94632e-18
1.375 	-0.9375 	0.5 	91.8829 	8.13053 	-5.38699e-19
1.4375 	-0.9375 	0.5 	92.0829 	8.10861 	5.38407e-20
-0.5 	-0.875 	0.5 	90.1086 	15.5569 	-3.70004e-19
-0.4375 	-0.875 	0.5 	89.8198 	15.3996 	4.5696e-19
-0.375 	-0.875 	0.5 	89.5358 	15.2121 	-4.72161e-19
-0.3125 	-0.875 	0.5 	89.2524 	14.9886 	7.96736e-19
-0.25 	-0.875 	0.5 	88.9957 	14.73 	7.76757e-19
-0.1875 	-0.875 	0.5 	88.754 	14.4293 	-9.05945e-19
-0.125 	-0.875 	0.5 	88.5215 	14.1039 	-8.91589e-19
-0.0625 	-0.875 	0.5 	88.3429 	13.7461 	2.61938e-19
6.55292e-16 	-0.875 	0.5 	88.1866 	13.3618 	-2.23509e-18
0.0625 	-0.875 	0.5 	88.0806 	12.961 	-2.26956e-19
0.125 	-0.875 	0.5 	88.0117 	12.551 	6.76678e-19
0.1875 	-0.875 	0.5 	87.9873 	12.1275 	-6.68257e-19
0.25 	-0.875 	0.5 	88.0055 	11.7119 	-8.81243e-18
0.3125 	-0.875 	0.5 	88.0669 	11.3076 	-5.90928e-19
0.375 	-0.875 	0.5 	88.1681 	10.9187 	5.25994e-20
0.4375 	-0.875 	0.5 	88.2944 	10.5455 	3.24263e-18
0.5 	-0.875 	0.5 	88.4532 	10.189 	1.94549e-18
0.5625 	-0.875 	0.5 	88.6387 	9.85588 	-2.09283e-18
0.625 	-0.875 	0.5 	88.8548 	9.54518 	1.14879e-19
0.6875 	-0.875 	0.5 	89.0742 	9.28053 	-9.31495e-19
0.75 	-0.875 	0.5 	89.3211 	9.02174 	-5.45556e-19
0.8125 	-0.875 	0.5 	89.5785 	8.7993 	7.0906e-19
0.875 	-0.875 	0.5 	89.8492 	8.61146 	1.19456e-18
0.9375 	-0.875 	0.5 	90.1005 	8.44102 	-9.86768e-19
1 	-0.875 	0.5 	90.3638 	8.30418 	6.83253e-21
1.0625 	-0.875 	0.5 	90.6302 	8.18586 	2.35652e-19
1.125 	-0.875 	0.5 	90.8868 	8.11246 	3.12035e-18
1.1875 	-0.875 	0.5 	91.1523 	8.02509 	1.96955e-19
1.25 	-0.875 	0.5 	91.3857 	7.97549 	1.92311e-18
1.3125 	-0.875 	0.5 	91.6276 	7.93625 	9.79105e-20
1.375 	-0.875 	0.5 	91.8539 	7.92699 	7.5843e-20
1.4375 	-0.875 	0.5 	92.0671 	7.90812 	6.98713e-20
-0.5 	-0.8125 	0.5 	89.9627 	15.8502 	-2.03183e-19
-0.4375 	-0.8125 	0.5 	89.6472 	15.7018 	5.3033e-20
-0.375 	-0.8125 	0.5 	89.3264 	15.5097 	2.68232e-19
-0.3125 	-0.8125 	0.5 	89.0078 	15.278 	-1.67904e-18
-0.25 	-0.8125 	0.5 	88.6901 	15.018 	-2.69796e-19
-0.1875 	-0.8125 	0.5 	88.4086 	14.6961 	2.62113e-18
-0.125 	-0.8125 	0.5 	88.156 	14.3332 	-1.66141e-18
-0.0625 	-0.8125 	0.5 	87.9392 	13.9311 	8.47833e-20
-8.8994e-16 	-0.8125 	0.5 	87.7647 	13.5022 	-3.59401e-19
0.0625 	-0.8125 	0.5 	87.6294 	13.046 	2.25907e-19
0.125 	-0.8125 	0.5 	87.5547 	12.5918 	-8.38513e-19
0.1875 	-0.8125 	0.5 	87.5429 	12.1278 	2.18415e-18
0.25 	-0.8125 	0.5 	87.5627 	11.6686 	6.35972e-20
0.3125 	-0.8125 	0.5 	87.6365 	11.2196 	-1.90702e-19
0.375 	-0.8125 	0.5 	87.7423 	10.7986 	1.17668e-18
0.4375 	-0.8125 	0.5 	87.8972 	10.3831 	3.91807e-19
0.5 	-0.8125 	0.5 	88.0855 	9.99813 	3.41015e-18
0.5625 	-0.8125 	0.5 	88.2937 	9.63673 	1.11963e-20
0.625 	-0.8125 	0.5 	88.5485 	9.32433 	1.70828e-18
0.6875 	-0.8125 	0.5 	88.7981 	9.01943 	4.17702e-19
0.75 	-0.8125 	0.5 	89.0696 	8.76737 	4.86293e-19
0.8125 	-0.8125 	0.5 	89.3499 	8.51486 	-9.1334e-20
0.875 	-0.8125 	0.5 	89.6414 	8.34329 	4.70557e-19
0.9375 	-0.8125 	0.5 	89.9401 	8.17332 	5.32119e-19
1 	-0.8125 	0.5 	90.2392 	8.03314 	1.33421e-19
1.0625 	-0.8125 	0.5 	90.5375 	7.91329 	3.01599e-19
1.125 	-0.8125 	0.5 	90.8028 	7.81991 	-9.87302e-21
1.1875 	-0.8125 	0.5 	91.0926 	7.75864 	1.94111e-18
1.25 	-0.8125 	0.5 	91.348 	7.71862 	1.85889e-18
1.3125 	-0.8125 	0.5 	91.6099 	7.69413 	9.34015e-19
1.375 	-0.8125 	0.5 	91.8457 	7.68433 	-1.88461e-19
1.4375 	-0.8125 	0.5 	92.0767 	7.69197 	2.06779e-19
-0.5 	-0.75 	0.5 	89.8269 	16.1859 	-2.97908e-19
-0.4375 	-0.75 	0.5 	89.4712 	16.0427 	3.65679e-19
-0.375 	-0.75 	0.5 	89.1 	15.8615 	-2.11882e-18
-0.3125 	-0.75 	0.5 	88.7379 	15.6331 	-2.02586e-18
-0.25 	-0.75 	0.5 	88.3703 	15.3282 	-4.80443e-19
-0.1875 	-0.75 	0.5 	88.0354 	14.9802 	1.37148e-18
-0.125 	-0.75 	0.5 	87.7505 	14.5789 	-1.38525e-19
-0.0625 	-0.75 	0.5 	87.4899 	14.1469 	-1.21194e-18
-2.39782e-15 	-0.75 	0.5 	87.2723 	13.6564 	4.17553e-18
0.0625 	-0.75 	0.5 	87.136 	13.1496 	-5.23417e-19
0.125 	-0.75 	0.5 	87.0652 	12.6471 	6.62486e-19
0.1875 	-0.75 	0.5 	87.0375 	12.1196 	9.63907e-19
0.25 	-0.75 	0.5 	87.0746 	11.6175 	5.02557e-19
0.3125 	-0.75 	0.5 	87.1666 	11.1282 	3.07158e-18
0.375 	-0.75 	0.5 	87.3047 	10.6416 	5.13493e-18
0.4375 	-0.75 	0.5 	87.4824 	10.2017 	5.67551e-20
0.5 	-0.75 	0.5 	87.71 	9.79229 	1.67622e-18
0.5625 	-0.75 	0.5 	87.9522 	9.40123 	1.9617e-18
0.625 	-0.75 	0.5 	88.2156 	9.05603 	-1.10086e-19
0.6875 	-0.75 	0.5 	88.5044 	8.74557 	3.6644e-19
0.75 	-0.75 	0.5 	88.8075 	8.47018 	-5.79326e-21
0.8125 	-0.75 	0.5 	89.1251 	8.2315 	4.51559e-19
0.875 	-0.75 	0.5 	89.4484 	8.02172 	2.4042e-20
0.9375 	-0.75 	0.5 	89.7692 	7.85284 	1.92776e-18
1 	-0.75 	0.5 	90.1008 	7.71437 	-1.36839e-18
1.0625 	-0.75 	0.5 	90.4136 	7.60775 	-3.37266e-19
1.125 	-0.75 	0.5 	90.726 	7.52836 	-6.53447e-19
1.1875 	-0.75 	0.5 	91.0278 	7.47856 	2.94241e-18
1.25 	-0.75 	0.5 	91.3125 	7.45057 	5.26354e-20
1.3125 	-0.75 	0.5 	91.5839 	7.43746 	-3.14842e-18
1.375 	-0.75 	0.5 	91.8441 	7.44166 	-1.45036e-18
1.4375 	-0.75 	0.5 	92.0878 	7.46353 	6.80947e-19
-0.5 	-0.6875 	0.5 	89.7032 	16.5563 	8.26516e-19
-0.4375 	-0.6875 	0.5 	89.2999 	16.4344 	2.77979e-19
-0.375 	-0.6875 	0.5 	88.8831 	16.2557 	4.32928e-19
-0.3125 	-0.6875 	0.5 	88.4637 	16.0269 	1.45776e-19
-0.25 	-0.6875 	0.5 	88.0385 	15.7034 	-1.36856e-18
-0.1875 	-0.6875 	0.5 	87.6627 	15.3232 	3.14493e-18
-0.125 	-0.6875 	0.5 	87.2995 	14.9039 	-7.82946e-19
-0.0625 	-0.6875 	0.5 	86.9864 	14.4027 	1.50279e-18
-2.97288e-15 	-0.6875 	0.5 	86.7563 	13.8615 	1.28348e-18
0.0625 	-0.6875 	0.5 	86.5805 	13.2798 	-1.17429e-18
0.125 	-0.6875 	0.5 	86.4946 	12.6709 	2.26389e-20
0.1875 	-0.6875 	0.5 	86.4704 	12.1037 	-3.56306e-19
0.25 	-0.6875 	0.5 	86.5243 	11.543 	-2.41923e-20
0.3125 	-0.6875 	0.5 	86.6434 	10.9893 	-9.34017e-19
0.375 	-0.6875 	0.5 	86.8124 	10.4761 	-8.50232e-19
0.4375 	-0.6875 	0.5 	87.0263 	9.98014 	-1.64747e-18
0.5 	-0.6875 	0.5 	87.2716 	9.53285 	1.63177e-19
0.5625 	-0.6875 	0.5 	87.5532 	9.12395 	-2.37474e-19
0.625 	-0.6875 	0.5 	87.867 	8.75853 	-7.78287e-19
0.6875 	-0.6875 	0.5 	88.1886 	8.4279 	-8.9326e-19
0.75 	-0.6875 	0.5 	88.5358 	8.13623 	-1.26491e-20
0.8125 	-0.6875 	0.5 	88.8946 	7.89088 	-3.01688e-19
0.875 	-0.6875 	0.5 	89.2507 	7.68749 	2.40609e-18
0.9375 	-0.6875 	0.5 	89.6195 	7.51198 	-7.4378e-19
1 	-0.6875 	0.5 	89.9777 	7.3835 	1.71315e-18
1.0625 	-0.6875 	0.5 	90.3161 	7.28896 	9.17701e-20
1.125 	-0.6875 	0.5 	90.6636 	7.20413 	1.2344e-19
1.1875 	-0.6875 	0.5 	90.9866 	7.17653 	2.02054e-18
1.25 	-0.6875 	0.5 	91.2932 	7.16244 	1.18412e-18
1.3125 	-0.6875 	0.5 	91.584 	7.16543 	-3.94609e-19
1.375 	-0.6875 	0.5 	91.8536 	7.18808 	5.00289e-19
1.4375 	-0.6875 	0.5 	92.1109 	7.22275 	1.48349e-18
-0.5 	-0.625 	0.5 	89.5837 	16.9847 	3.76776e-19
-0.4375 	-0.625 	0.5 	89.1299 	16.8822 	2.16877e-18
-0.375 	-0.625 	0.5 	88.6499 	16.6987 	-3.31865e-19
-0.3125 	-0.625 	0.5 	88.1672 	16.476 	3.38084e-18
-0.25 	-0.625 	0.5 	87.6697 	16.1376 	-6.38319e-20
-0.1875 	-0.625 	0.5 	87.2051 	15.7375 	-3.03841e-19
-0.125 	-0.625 	0.5 	86.7869 	15.252 	-2.02379e-18
-0.0625 	-0.625 	0.5 	86.4357 	14.6947 	-1.76209e-19
-4.07573e-15 	-0.625 	0.5 	86.1515 	14.0859 	-1.56406e-18
0.0625 	-0.625 	0.5 	85.9647 	13.4168 	1.91573e-18
0.125 	-0.625 	0.5 	85.8599 	12.7536 	-7.34561e-19
0.1875 	-0.625 	0.5 	85.8585 	12.0826 	7.00165e-19
0.25 	-0.625 	0.5 	85.9294 	11.4398 	-2.94768e-19
0.3125 	-0.625 	0.5 	86.0735 	10.8282 	-2.21827e-18
0.375 	-0.625 	0.5 	86.2792 	10.2573 	-1.98864e-18
0.4375 	-0.625 	0.5 	86.5323 	9.73024 	-5.47226e-19
0.5 	-0.625 	0.5 	86.8248 	9.24759 	-8.16004e-19
0.5625 	-0.625 	0.5 	87.145 	8.80805 	6.7824e-19
0.625 	-0.625 	0.5 	87.4974 	8.41751 	-1.95362e-18
0.6875 	-0.625 	0.5 	87.8665 	8.07285 	2.12927e-18
0.75 	-0.625 	0.5 	88.2489 	7.77093 	3.46878e-19
0.8125 	-0.625 	0.5 	88.6616 	7.51098 	1.51049e-18
0.875 	-0.625 	0.5 	89.0546 	7.29474 	6.75247e-20
0.9375 	-0.625 	0.5 	89.4613 	7.13808 	5.59826e-19
1 	-0.625 	0.5 	89.8527 	7.01028 	-4.51363e-19
1.0625 	-0.625 	0.5 	90.2548 	6.91211 	1.18271e-19
1.125 	-0.625 	0.5 	90.6103 	6.86589 	-9.38744e-19
1.1875 	-0.625 	0.5 	90.9492 	6.8567 	5.67781e-19
1.25 	-0.625 	0.5 	91.2887 	6.85479 	3.85038e-19
1.3125 	-0.625 	0.5 	91.5983 	6.88206 	-1.3903e-18
1.375 	-0.625 	0.5 	91.8907 	6.90753 	9.07429e-20
1.4375 	-0.625 	0.5 	92.1536 	6.97594 	1.27305e-18
-0.5 	-0.5625 	0.5 	89.5094 	17.4524 	-4.03316e-19
-0.4375 	-0.5625 	0.5 	89.0076 	17.3776 	-8.85858e-19
-0.375 	-0.5625 	0.5 	88.4439 	17.2262 	7.30215e-19
-0.3125 	-0.5625 	0.5 	87.8776 	16.9932 	1.28702e-18
-0.25 	-0.5625 	0.5 	87.2924 	16.6647 	5.6581e-19
-0.1875 	-0.5625 	0.5 	86.7186 	16.2484 	-6.24451e-19
-0.125 	-0.5625 	0.5 	86.221 	15.7038 	3.00932e-18
-0.0625 	-0.5625 	0.5 	85.7714 	15.0552 	1.14742e-18
-2.48065e-15 	-0.5625 	0.5 	85.4425 	14.3281 	1.16504e-18
0.0625 	-0.5625 	0.5 	85.224 	13.5836 	-1.0212e-18
0.125 	-0.5625 	0.5 	85.1349 	12.794 	-1.00935e-18
0.1875 	-0.5625 	0.5 	85.1532 	12.0392 	3.94661e-19
0.25 	-0.5625 	0.5 	85.2544 	11.3072 	3.0457e-18
0.3125 	-0.5625 	0.5 	85.4474 	10.6362 	-1.24543e-18
0.375 	-0.5625 	0.5 	85.6992 	10.0057 	2.85211e-19
0.4375 	-0.5625 	0.5 	85.9914 	9.43297 	2.58868e-19
0.5 	-0.5625 	0.5 	86.3369 	8.92052 	5.72468e-19
0.5625 	-0.5625 	0.5 	86.7081 	8.43381 	-1.90482e-18
0.625 	-0.5625 	0.5 	87.107 	8.03439 	-1.70803e-18
0.6875 	-0.5625 	0.5 	87.5181 	7.6753 	8.18413e-20
0.75 	-0.5625 	0.5 	87.9669 	7.34802 	2.1719e-19
0.8125 	-0.5625 	0.5 	88.4113 	7.08158 	1.33682e-18
0.875 	-0.5625 	0.5 	88.8608 	6.87973 	-2.00016e-20
0.9375 	-0.5625 	0.5 	89.3071 	6.71086 	-5.17456e-20
1 	-0.5625 	0.5 	89.748 	6.59494 	-1.31627e-18
1.0625 	-0.5625 	0.5 	90.1742 	6.51009 	-9.62117e-19
1.125 	-0.5625 	0.5 	90.5753 	6.49477 	4.88094e-19
1.1875 	-0.5625 	0.5 	90.9541 	6.49062 	-3.32945e-19
1.25 	-0.5625 	0.5 	91.3069 	6.51688 	1.53583e-19
1.3125 	-0.5625 	0.5 	91.6334 	6.56477 	-2.11622e-19
1.375 	-0.5625 	0.5 	91.9436 	6.62843 	6.76982e-19
1.4375 	-0.5625 	0.5 	92.2191 	6.69918 	7.0688e-20
-0.5 	-0.5 	0.5 	89.4641 	17.9582 	1.27347e-19
-0.4375 	-0.5 	0.5 	88.9005 	17.9366 	-3.90498e-19
-0.375 	-0.5 	0.5 	88.2695 	17.843 	1.24916e-18
-0.3125 	-0.5 	0.5 	87.5889 	17.6318 	-7.35129e-19
-0.25 	-0.5 	0.5 	86.8965 	17.3043 	-1.59215e-18
-0.1875 	-0.5 	0.5 	86.2227 	16.8416 	9.18962e-19
-0.125 	-0.5 	0.5 	85.5679 	16.2348 	3.66255e-19
-0.0625 	-0.5 	0.5 	85.0189 	15.4723 	4.15252e-19
-3.41583e-15 	-0.5 	0.5 	84.6048 	14.6375 	-6.11069e-18
0.0625 	-0.5 	0.5 	84.3338 	13.7489 	-1.50794e-18
0.125 	-0.5 	0.5 	84.2618 	12.8298 	-1.18021e-20
0.1875 	-0.5 	0.5 	84.324 	11.9415 	7.39956e-19
0.25 	-0.5 	0.5 	84.4892 	11.1217 	-2.64416e-18
0.3125 	-0.5 	0.5 	84.7294 	10.377 	-8.18785e-19
0.375 	-0.5 	0.5 	85.0502 	9.70764 	-7.19638e-19
0.4375 	-0.5 	0.5 	85.4083 	9.09155 	1.77747e-19
0.5 	-0.5 	0.5 	85.8069 	8.52133 	-3.52253e-18
0.5625 	-0.5 	0.5 	86.2414 	8.03348 	3.80963e-21
0.625 	-0.5 	0.5 	86.6903 	7.59197 	7.56981e-21
0.6875 	-0.5 	0.5 	87.1659 	7.19947 	-1.12899e-18
0.75 	-0.5 	0.5 	87.6646 	6.88096 	1.50531e-18
0.8125 	-0.5 	0.5 	88.1605 	6.61223 	6.75376e-18
0.875 	-0.5 	0.5 	88.6635 	6.39415 	-5.8785e-20
0.9375 	-0.5 	0.5 	89.1679 	6.2451 	-3.11401e-19
1 	-0.5 	0.5 	89.653 	6.13269 	-2.7491e-19
1.0625 	-0.5 	0.5 	90.1216 	6.08681 	-4.63864e-20
1.125 	-0.5 	0.5 	90.561 	6.08732 	1.03961e-18
1.1875 	-0.5 	0.5 	90.9667 	6.10758 	-7.82853e-19
1.25 	-0.5 	0.5 	91.3491 	6.16363 	-8.37565e-20
1.3125 	-0.5 	0.5 	91.6953 	6.23497 	-1.93499e-18
1.375 	-0.5 	0.5 	92.0114 	6.33791 	-2.17429e-19
1.4375 	-0.5 	0.5 	92.3112 	6.42981 	-1.41366e-18
-0.5 	-0.4375 	0.5 	89.505 	18.5645 	2.78547e-19
-0.4375 	-0.4375 	0.5 	88.8634 	18.5999 	-2.9251e-19
-0.375 	-0.4375 	0.5 	88.1244 	18.5463 	-3.37627e-19
-0.3125 	-0.4375 	0.5 	87.3414 	18.3818 	-7.87782e-19
-0.25 	-0.4375 	0.5 	86.4967 	18.07 	-1.91184e-18
-0.1875 	-0.4375 	0.5 	85.6457 	17.6103 	6.99807e-19
-0.125 	-0.4375 	0.5 	84.8285 	16.9307 	1.74328e-18
-0.0625 	-0.4375 	0.5 	84.1456 	16.0312 	-2.14277e-19
-4.23706e-15 	-0.4375 	0.5 	83.6274 	14.9988 	8.24225e-19
0.0625 	-0.4375 	0.5 	83.3591 	13.9063 	-2.51959e-18
0.125 	-0.4375 	0.5 	83.2758 	12.8109 	4.27931e-19
0.1875 	-0.4375 	0.5 	83.4072 	11.7898 	3.44569e-19
0.25 	-0.4375 	0.5 	83.6564 	10.8676 	-6.86487e-19
0.3125 	-0.4375 	0.5 	83.9951 	10.057 	-8.08383e-19
0.375 	-0.4375 	0.5 	84.3849 	9.32124 	-3.65333e-19
0.4375 	-0.4375 	0.5 	84.8012 	8.67236 	-7.31263e-19
0.5 	-0.4375 	0.5 	85.2599 	8.08905 	4.6198e-19
0.5625 	-0.4375 	0.5 	85.7452 	7.56372 	4.24858e-19
0.625 	-0.4375 	0.5 	86.2569 	7.10339 	7.32836e-19
0.6875 	-0.4375 	0.5 	86.8012 	6.69721 	2.27555e-19
0.75 	-0.4375 	0.5 	87.3457 	6.35474 	-1.14606e-19
0.8125 	-0.4375 	0.5 	87.9115 	6.08274 	-6.83254e-19
0.875 	-0.4375 	0.5 	88.4859 	5.86469 	-7.29673e-20
0.9375 	-0.4375 	0.5 	89.0528 	5.72716 	2.57501e-20
1 	-0.4375 	0.5 	89.5778 	5.63929 	-1.88849e-19
1.0625 	-0.4375 	0.5 	90.0899 	5.61563 	-1.83419e-19
1.125 	-0.4375 	0.5 	90.574 	5.64178 	6.10051e-19
1.1875 	-0.4375 	0.5 	91.0176 	5.69375 	-1.99997e-18
1.25 	-0.4375 	0.5 	91.4252 	5.78286 	1.29109e-19
1.3125 	-0.4375 	0.5 	91.7956 	5.89876 	-1.19014e-20
1.375 	-0.4375 	0.5 	92.124 	6.02541 	9.4346e-19
1.4375 	-0.4375 	0.5 	92.4261 	6.15745 	9.58022e-20
-0.5 	-0.375 	0.5 	89.5881 	19.1916 	-1.97389e-19
-0.4375 	-0.375 	0.5 	88.8821 	19.3039 	8.58104e-20
-0.375 	-0.375 	0.5 	88.0528 	19.3306 	5.65427e-19
-0.3125 	-0.375 	0.5 	87.1339 	19.2953 	4.57396e-19
-0.25 	-0.375 	0.5 	86.1054 	19.0338 	5.93111e-19
-0.1875 	-0.375 	0.5 	85.039 	18.5278 	-1.75053e-18
-0.125 	-0.375 	0.5 	83.9707 	17.7857 	-1.13272e-18
-0.0625 	-0.375 	0.5 	83.0732 	16.7255 	2.36577e-18
-2.93082e-15 	-0.375 	0.5 	82.4121 	15.4826 	1.84472e-18
0.0625 	-0.375 	0.5 	82.0836 	14.0508 	4.37436e-19
0.125 	-0.375 	0.5 	82.1163 	12.7392 	2.00131e-18
0.1875 	-0.375 	0.5 	82.3474 	11.5453 	-1.22482e-18
0.25 	-0.375 	0.5 	82.7523 	10.5089 	1.80903e-18
0.3125 	-0.375 	0.5 	83.1964 	9.63936 	1.47387e-18
0.375 	-0.375 	0.5 	83.682 	8.87235 	-1.61188e-18
0.4375 	-0.375 	0.5 	84.1853 	8.19908 	-9.4553e-19
0.5 	-0.375 	0.5 	84.694 	7.58096 	-5.78316e-19
0.5625 	-0.375 	0.5 	85.2389 	7.03677 	2.32377e-18
0.625 	-0.375 	0.5 	85.8139 	6.55078 	2.28593e-19
0.6875 	-0.375 	0.5 	86.4083 	6.11415 	2.14486e-19
0.75 	-0.375 	0.5 	87.0238 	5.76125 	8.78876e-19
0.8125 	-0.375 	0.5 	87.6656 	5.46884 	4.95931e-19
0.875 	-0.375 	0.5 	88.3056 	5.26377 	-7.97018e-19
0.9375 	-0.375 	0.5 	88.9303 	5.14103 	6.42949e-19
1 	-0.375 	0.5 	89.5486 	5.08902 	-1.34957e-18
1.0625 	-0.375 	0.5 	90.1099 	5.09652 	-5.35959e-19
1.125 	-0.375 	0.5 	90.6332 	5.1589 	-1.55258e-20
1.1875 	-0.375 	0.5 	91.1092 	5.26455 	3.68638e-19
1.25 	-0.375 	0.5 	91.546 	5.39036 	-3.36392e-19
1.3125 	-0.375 	0.5 	91.9262 	5.55448 	-3.28754e-19
1.375 	-0.375 	0.5 	92.278 	5.69424 	-3.87317e-19
1.4375 	-0.375 	0.5 	92.5797 	5.86662 	2.54318e-19
-0.5 	-0.3125 	0.5 	89.7793 	19.8689 	-1.01836e-19
-0.4375 	-0.3125 	0.5 	89.0063 	20.1249 	-2.22106e-19
-0.375 	-0.3125 	0.5 	88.0774 	20.309 	-1.43338e-18
-0.3125 	-0.3125 	0.5 	87.0428 	20.3692 	-1.94101e-19
-0.25 	-0.3125 	0.5 	85.7707 	20.2309 	1.85198e-18
-0.1875 	-0.3125 	0.5 	84.3431 	19.8423 	1.64135e-18
-0.125 	-0.3125 	0.5 	82.9749 	18.9878 	3.27666e-19
-0.0625 	-0.3125 	0.5 	81.7346 	17.6537 	-1.90275e-18
-3.00519e-15 	-0.3125 	0.5 	80.8687 	15.9888 	-1.65086e-18
0.0625 	-0.3125 	0.5 	80.5264 	14.1803 	-4.58274e-19
0.125 	-0.3125 	0.5 	80.7109 	12.4933 	-6.38412e-19
0.1875 	-0.3125 	0.5 	81.1835 	11.0998 	-1.4532e-18
0.25 	-0.3125 	0.5 	81.7789 	9.9951 	-8.23334e-19
0.3125 	-0.3125 	0.5 	82.3733 	9.10954 	-2.94186e-18
0.375 	-0.3125 	0.5 	82.9476 	8.33748 	-1.2247e-18
0.4375 	-0.3125 	0.5 	83.5218 	7.65911 	-7.83967e-20
0.5 	-0.3125 	0.5 	84.1017 	7.0284 	-1.59246e-19
0.5625 	-0.3125 	0.5 	84.7052 	6.44287 	2.79891e-18
0.625 	-0.3125 	0.5 	85.3331 	5.92527 	-3.77753e-20
0.6875 	-0.3125 	0.5 	86.0048 	5.46794 	-5.28818e-19
0.75 	-0.3125 	0.5 	86.6996 	5.0851 	-2.34539e-18
0.8125 	-0.3125 	0.5 	87.4229 	4.78843 	8.06891e-19
0.875 	-0.3125 	0.5 	88.1565 	4.58336 	-1.42055e-18
0.9375 	-0.3125 	0.5 	88.8673 	4.47753 	6.78768e-20
1 	-0.3125 	0.5 	89.5543 	4.46336 	-6.34558e-19
1.0625 	-0.3125 	0.5 	90.1808 	4.52332 	-3.28109e-19
1.125 	-0.3125 	0.5 	90.7494 	4.63825 	3.49547e-19
1.1875 	-0.3125 	0.5 	91.2482 	4.79443 	1.02157e-19
1.25 	-0.3125 	0.5 	91.7201 	4.96907 	8.15481e-19
1.3125 	-0.3125 	0.5 	92.1279 	5.1764 	-3.43415e-19
1.375 	-0.3125 	0.5 	92.4718 	5.38282 	-2.2592e-19
1.4375 	-0.3125 	0.5 	92.776 	5.58661 	-7.06936e-19
-0.5 	-0.25 	0.5 	90.1018 	20.575 	5.67497e-19
-0.4375 	-0.25 	0.5 	89.3103 	20.9877 	8.16658e-19
-0.375 	-0.25 	0.5 	88.3294 	21.3696 	-8.65798e-19
-0.3125 	-0.25 	0.5 	87.1019 	21.6027 	-9.26166e-19
-0.25 	-0.25 	0.5 	85.5865 	21.7135 	-2.14977e-18
-0.1875 	-0.25 	0.5 	83.7876 	21.4648 	1.63783e-19
-0.125 	-0.25 	0.5 	81.8165 	20.5946 	-2.5306e-19
-0.0625 	-0.25 	0.5 	79.9202 	18.9793 	1.63466e-19
-4.01816e-15 	-0.25 	0.5 	78.6901 	16.662 	-1.16445e-18
0.0625 	-0.25 	0.5 	78.4098 	14.1081 	1.59847e-19
0.125 	-0.25 	0.5 	78.9892 	11.9359 	-1.8298e-18
0.1875 	-0.25 	0.5 	79.9001 	10.3502 	-5.98853e-19
0.25 	-0.25 	0.5 	80.8211 	9.27962 	2.5012e-20
0.3125 	-0.25 	0.5 	81.5812 	8.46477 	-1.33381e-19
0.375 	-0.25 	0.5 	82.2461 	7.7429 	-8.71202e-20
0.4375 	-0.25 	0.5 	82.8618 	7.07992 	-1.99103e-19
0.5 	-0.25 	0.5 	83.4826 	6.41632 	-7.57202e-21
0.5625 	-0.25 	0.5 	84.1306 	5.79988 	1.6667e-18
0.625 	-0.25 	0.5 	84.8301 	5.24832 	3.29926e-19
0.6875 	-0.25 	0.5 	85.5702 	4.74447 	-3.76881e-19
0.75 	-0.25 	0.5 	86.3501 	4.3304 	2.92102e-20
0.8125 	-0.25 	0.5 	87.175 	4.01362 	5.66731e-20
0.875 	-0.25 	0.5 	87.9944 	3.81148 	2.47175e-18
0.9375 	-0.25 	0.5 	88.8386 	3.72534 	-3.41853e-19
1 	-0.25 	0.5 	89.6157 	3.75917 	6.63943e-19
1.0625 	-0.25 	0.5 	90.3097 	3.88454 	2.85742e-19
1.125 	-0.25 	0.5 	90.9397 	4.06131 	-4.90867e-19
1.1875 	-0.25 	0.5 	91.4874 	4.28748 	-8.2096e-20
1.25 	-0.25 	0.5 	91.9543 	4.53404 	2.23171e-19
1.3125 	-0.25 	0.5 	92.3576 	4.79659 	-5.38931e-19
1.375 	-0.25 	0.5 	92.7146 	5.05726 	-5.03523e-19
1.4375 	-0.25 	0.5 	93.0044 	5.30215 	-3.3734e-19
-0.5 	-0.1875 	0.5 	90.5508 	21.2964 	-6.79968e-19
-0.4375 	-0.1875 	0.5 	89.7749 	21.8656 	-6.51037e-19
-0.375 	-0.1875 	0.5 	88.7684 	22.5013 	-3.32252e-19
-0.3125 	-0.1875 	0.5 	87.4568 	23.05 	2.9704e-19
-0.25 	-0.1875 	0.5 	85.7002 	23.5475 	-4.30417e-19
-0.1875 	-0.1875 	0.5 	83.4224 	23.677 	-1.75716e-18
-0.125 	-0.1875 	0.5 	80.5854 	23.1077 	-7.80386e-19
-0.0625 	-0.1875 	0.5 	77.5989 	21.1206 	4.60047e-19
-3.06374e-15 	-0.1875 	0.5 	75.4744 	17.618 	1.36095e-18
0.0625 	-0.1875 	0.5 	75.3861 	13.6349 	-1.01892e-18
0.125 	-0.1875 	0.5 	76.9147 	10.6657 	-9.82167e-20
0.1875 	-0.1875 	0.5 	78.6681 	9.07902 	-1.26966e-20
0.25 	-0.1875 	0.5 	80.0069 	8.31359 	-6.22436e-20
0.3125 	-0.1875 	0.5 	80.9009 	7.72184 	-2.20485e-20
0.375 	-0.1875 	0.5 	81.5668 	7.11248 	3.35309e-19
0.4375 	-0.1875 	0.5 	82.2019 	6.43383 	-5.72407e-21
0.5 	-0.1875 	0.5 	82.8476 	5.76332 	-3.72626e-19
0.5625 	-0.1875 	0.5 	83.5357 	5.10636 	-1.37019e-18
0.625 	-0.1875 	0.5 	84.2896 	4.48939 	1.33746e-19
0.6875 	-0.1875 	0.5 	85.1051 	3.9365 	8.17521e-19
0.75 	-0.1875 	0.5 	85.9904 	3.46472 	-1.00395e-18
0.8125 	-0.1875 	0.5 	86.9323 	3.11315 	1.56967e-19
0.875 	-0.1875 	0.5 	87.9157 	2.88822 	-9.3121e-19
0.9375 	-0.1875 	0.5 	88.8838 	2.84361 	-6.65496e-19
1 	-0.1875 	0.5 	89.7804 	2.9784 	1.01133e-18
1.0625 	-0.1875 	0.5 	90.5596 	3.19899 	2.4736e-19
1.125 	-0.1875 	0.5 	91.2157 	3.47432 	-7.33771e-19
1.1875 	-0.1875 	0.5 	91.7943 	3.77775 	1.61849e-19
1.25 	-0.1875 	0.5 	92.276 	4.10011 	-1.46528e-18
1.3125 	-0.1875 	0.5 	92.6809 	4.42567 	2.82794e-19
1.375 	-0.1875 	0.5 	93.0212 	4.73487 	7.44247e-19
1.4375 	-0.1875 	0.5 	93.2941 	5.02982 	9.28272e-21
-0.5 	-0.125 	0.5 	91.1813 	21.9299 	3.83672e-19
-0.4375 	-0.125 	0.5 	90.4693 	22.7258 	-3.14235e-19
-0.375 	-0.125 	0.5 	89.516 	23.6182 	-3.98824e-20
-0.3125 	-0.125 	0.5 	88.2214 	24.5793 	-8.04961e-19
-0.25 	-0.125 	0.5 	86.3716 	25.657 	1.95462e-19
-0.1875 	-0.125 	0.5 	83.6997 	26.6403 	1.73729e-19
-0.125 	-0.125 	0.5 	79.6905 	26.9485 	-1.24843e-19
-0.0625 	-0.125 	0.5 	74.2616 	25.1675 	-2.12111e-19
-3.85391e-15 	-0.125 	0.5 	69.8578 	19.2014 	-1.52728e-18
0.0625 	-0.125 	0.5 	70.7821 	11.7045 	-4.47402e-20
0.125 	-0.125 	0.5 	74.7846 	7.88201 	2.25463e-19
0.1875 	-0.125 	0.5 	78.0991 	7.08337 	-8.20818e-19
0.25 	-0.125 	0.5 	79.7558 	7.21708 	-5.37151e-19
0.3125 	-0.125 	0.5 	80.4754 	7.05209 	3.52883e-19
0.375 	-0.125 	0.5 	80.9874 	6.51863 	1.96722e-19
0.4375 	-0.125 	0.5 	81.5572 	5.81329 	-1.21057e-20
0.5 	-0.125 	0.5 	82.2201 	5.08298 	-2.26391e-19
0.5625 	-0.125 	0.5 	82.936 	4.37179 	1.33642e-19
0.625 	-0.125 	0.5 	83.7363 	3.67923 	-1.64969e-20
0.6875 	-0.125 	0.5 	84.6269 	3.02844 	8.96526e-19
0.75 	-0.125 	0.5 	85.6264 	2.49437 	9.33549e-19
0.8125 	-0.125 	0.5 	86.7065 	2.06996 	-1.50224e-19
0.875 	-0.125 	0.5 	87.8754 	1.80533 	8.61275e-20
0.9375 	-0.125 	0.5 	89.0891 	1.79991 	2.05055e-19
1 	-0.125 	0.5 	90.1521 	2.08844 	-4.24293e-19
1.0625 	-0.125 	0.5 	90.9749 	2.46602 	-1.46062e-19
1.125 	-0.125 	0.5 	91.6699 	2.83878 	4.81894e-19
1.1875 	-0.125 	0.5 	92.2589 	3.24267 	4.92713e-19
1.25 	-0.125 	0.5 	92.7471 	3.65867 	3.09651e-19
1.3125 	-0.125 	0.5 	93.1394 	4.06602 	-1.85411e-19
1.375 	-0.125 	0.5 	93.495 	4.43833 	2.5944e-19
1.4375 	-0.125 	0.5 	93.8 	4.76238 	1.793e-20
-0.5 	-0.0625 	0.5 	91.9567 	22.5044 	4.34969e-20
-0.4375 	-0.0625 	0.5 	91.3983 	23.486 	-9.78307e-20
-0.375 	-0.0625 	0.5 	90.6055 	24.6259 	-2.53886e-19
-0.3125 	-0.0625 	0.5 	89.5131 	26.0683 	-1.44995e-19
-0.25 	-0.0625 	0.5 	87.8688 	27.7751 	2.71637e-19
-0.1875 	-0.0625 	0.5 	85.2798 	30.0503 	1.33527e-18
-0.125 	-0.0625 	0.5 	80.552 	32.7101 	-3.46775e-19
-0.0625 	-0.0625 	0.5 	71.0152 	34.0997 	4.45353e-19
-3.52756e-15 	-0.0625 	0.5 	57.0667 	23.1404 	-8.88531e-20
0.0625 	-0.0625 	0.5 	63.2669 	4.75141 	-1.28905e-18
0.125 	-0.0625 	0.5 	74.1245 	2.00081 	7.73864e-20
0.1875 	-0.0625 	0.5 	79.7016 	4.29169 	-3.23875e-19
0.25 	-0.0625 	0.5 	80.4356 	6.65579 	7.02106e-19
0.3125 	-0.0625 	0.5 	80.3065 	6.73525 	-2.79963e-19
0.375 	-0.0625 	0.5 	80.4127 	6.11377 	6.70463e-19
0.4375 	-0.0625 	0.5 	80.9289 	5.16543 	1.18312e-18
0.5 	-0.0625 	0.5 	81.6767 	4.36848 	2.74742e-20
0.5625 	-0.0625 	0.5 	82.3963 	3.61875 	-6.06958e-19
0.625 	-0.0625 	0.5 	83.2229 	2.79433 	-2.23577e-19
0.6875 	-0.0625 	0.5 	84.2228 	2.02833 	7.90693e-19
0.75 	-0.0625 	0.5 	85.3661 	1.38025 	4.82197e-20
0.8125 	-0.0625 	0.5 	86.5923 	0.871176 	4.71766e-21
0.875 	-0.0625 	0.5 	87.9449 	0.450148 	1.12311e-19
0.9375 	-0.0625 	0.5 	89.6738 	0.353765 	7.41411e-20
1 	-0.0625 	0.5 	91.0884 	1.21148 	2.97369e-21
1.0625 	-0.0625 	0.5 	91.7333 	1.72884 	4.65649e-19
1.125 	-0.0625 	0.5 	92.4764 	2.18482 	4.47968e-19
1.1875 	-0.0625 	0.5 	93.1512 	2.67702 	1.19786e-19
1.25 	-0.0625 	0.5 	93.6962 	3.27424 	9.73596e-19
1.3125 	-0.0625 	0.5 	93.7512 	3.66945 	-1.15479e-19
1.375 	-0.0625 	0.5 	94.3865 	4.08682 	2.18008e-19
1.4375 	-0.0625 	0.5 	94.3701 	4.54181 	9.2406e-20
-0.5 	-7.58942e-19 	0.5 	92.8817 	22.934 	-5.31716e-20
-0.4375 	0 	0.5 	92.5053 	24.0312 	-1.56119e-19
-0.375 	-4.33681e-19 	0.5 	91.9999 	25.3672 	3.09349e-20
-0.3125 	-6.50521e-19 	0.5 	91.3269 	27.1586 	-2.62957e-20
-0.25 	-2.38524e-18 	0.5 	90.2807 	29.4645 	-9.97357e-20
-0.1875 	-4.06576e-19 	0.5 	88.6046 	32.9376 	5.51156e-20
-0.125 	1.0842e-18 	0.5 	85.7413 	38.431 	-2.20591e-19
-0.0625 	1.13841e-18 	0.5 	78.8744 	50.1802 	-3.41474e-19
-2.70644e-17 	1.40946e-18 	0.5 	1.34839 	65.0239 	-2.94841e-18
0.625 	5.42101e-20 	0.5 	26.9334 	0.519893 	-2.85647e-19
0.6875 	-5.42101e-20 	0.5 	57.0602 	0.705706 	2.76778e-19
0.75 	4.33681e-19 	0.5 	66.3675 	0.23999 	-7.6721e-19
0.8125 	-4.87891e-19 	0.5 	58.4404 	-0.268072 	2.43139e-20
0.875 	-3.79471e-19 	0.5 	52.8359 	-0.530273 	4.7191e-19
0.9375 	-1.6263e-19 	0.5 	27.814 	-0.829211 	-2.89358e-19
1 	3.9041e-19 	0.5 	3.46032e-15 	-5.05921e-16 	1.10156e-35
1.0625 	4.33681e-19 	0.5 	72.4712 	0.813268 	2.60074e-19
1.125 	-2.05998e-18 	0.5 	75.5029 	1.34366 	2.3199e-18
1.1875 	-2.20906e-18 	0.5 	79.7551 	2.34229 	6.44081e-19
1.25 	-1.51788e-18 	0.5 	82.0594 	2.7268 	-2.12338e-19
1.3125 	-5.06865e-18 	0.5 	83.105 	3.37483 	-2.21259e-19
1.375 	-5.20417e-18 	0.5 	84.5039 	3.72554 	-3.9709e-19
1.4375 	-7.58942e-18 	0.5 	85.3439 	4.16393 	-9.28438e-19
-0.5 	0.0625 	0.5 	93.8411 	23.1658 	2.76214e-20
-0.4375 	0.0625 	0.5 	93.7313 	24.309 	-5.12265e-20
-0.375 	0.0625 	0.5 	93.5706 	25.7376 	3.39375e-20
-0.3125 	0.0625 	0.5 	93.3686 	27.655 	-1.12278e-19
-0.25 	0.0625 	0.5 	93.2474 	30.1831 	-1.51823e-19
-0.1875 	0.0625 	0.5 	93.2376 	33.8924 	3.33183e-20
-0.125 	0.0625 	0.5 	93.7782 	39.8092 	-2.01349e-19
-0.0625 	0.0625 	0.5 	97.4837 	49.8738 	1.75635e-20
-3.15503e-17 	0.0625 	0.5 	115.454 	60.0098 	8.47545e-19
0.0625 	0.0625 	0.5 	132.445 	48.2476 	-2.93596e-18
0.125 	0.0625 	0.5 	120.235 	30.4419 	3.14963e-20
0.6875 	0.0625 	0.5 	80.0131 	-11.2586 	-2.0973e-19
0.75 	0.0625 	0.5 	85.124 	-12.174 	4.25576e-19
0.8125 	0.0625 	0.5 	86.401 	-11.8926 	-8.38133e-20
0.875 	0.0625 	0.5 	86.0713 	-10.9398 	6.33274e-20
0.9375 	0.0625 	0.5 	84.8466 	-9.27165 	-1.31515e-20
1 	0.0625 	0.5 	83.2458 	-6.32275 	1.12929e-19
1.0625 	0.0625 	0.5 	83.0114 	-2.9105 	-1.57478e-20
1.125 	0.0625 	0.5 	83.078 	-0.812908 	1.37891e-19
1.1875 	0.0625 	0.5 	83.2779 	0.233495 	-1.22167e-18
1.25 	0.0625 	0.5 	81.7105 	1.09559 	2.02969e-19
1.3125 	0.0625 	0.5 	81.6052 	1.9849 	3.75437e-19
1.375 	0.0625 	0.5 	82.1744 	2.74034 	-2.55062e-19
1.4375 	0.0625 	0.5 	82.4363 	3.31432 	-1.91526e-19
-0.5 	0.125 	0.5 	94.8522 	23.189 	-2.03297e-19
-0.4375 	0.125 	0.5 	94.9948 	24.3109 	-4.87148e-19
-0.375 	0.125 	0.5 	95.1942 	25.7149 	-1.47156e-19
-0.3125 	0.125 	0.5 	95.4589 	27.4854 	-3.16718e-20
-0.25 	0.125 	0.5 	96.0945 	29.8165 	-6.15941e-19
-0.1875 	0.125 	0.5 	97.3019 	32.9088 	-5.88825e-19
-0.125 	0.125 	0.5 	99.8572 	36.9944 	-6.0145e-19
-0.0625 	0.125 	0.5 	105.325 	41.5854 	-2.13057e-19
-1.43613e-15 	0.125 	0.5 	114.781 	43.5118 	8.71927e-19
0.0625 	0.125 	0.5 	124.801 	39.3355 	-1.47268e-19
0.125 	0.125 	0.5 	130.926 	31.7382 	5.19652e-19
0.1875 	0.125 	0.5 	133.498 	23.1839 	2.07544e-18
0.25 	0.125 	0.5 	132.866 	15.6209 	-7.2201e-19
0.3125 	0.125 	0.5 	131.287 	9.34185 	7.57062e-19
0.375 	0.125 	0.5 	128.865 	3.27582 	-1.63653e-18
0.4375 	0.125 	0.5 	125.083 	-2.29557 	6.97997e-19
0.5 	0.125 	0.5 	120.376 	-6.06607 	1.07942e-18
0.5625 	0.125 	0.5 	115.972 	-8.34436 	-5.34911e-20
0.625 	0.125 	0.5 	111.968 	-9.47765 	1.45274e-19
0.6875 	0.125 	0.5 	108.33 	-10.0742 	-4.49023e-19
0.75 	0.125 	0.5 	104.898 	-10.1375 	-2.25053e-19
0.8125 	0.125 	0.5 	101.621 	-9.64107 	1.04048e-19
0.875 	0.125 	0.5 	98.6587 	-8.57201 	1.04473e-20
0.9375 	0.125 	0.5 	95.9902 	-6.99953 	-4.14656e-20
1 	0.125 	0.5 	94.0528 	-4.89789 	1.85338e-20
1.0625 	0.125 	0.5 	92.9736 	-2.6797 	-3.60379e-20
1.125 	0.125 	0.5 	92.4235 	-0.848248 	2.33825e-20
1.1875 	0.125 	0.5 	92.3983 	0.516136 	1.11192e-20